[
  {
    "atomicNumber": 1,
    "symbol": "H",
    "name": "Hydrogen",
    "atomicMass": "1.008",
    "category": "Nonmetal",
    "phase": "Gas",
    "summary": "Lightest and most abundant element in the universe.",
    "x": 1,
    "y": 1
  },
  {
    "atomicNumber": 2,
    "symbol": "He",
    "name": "Helium",
    "atomicMass": "4.0026",
    "category": "Noble Gas",
    "phase": "Gas",
    "summary": "Used in balloons and as a coolant.",
    "x": 18,
    "y": 1
  },
  {
    "atomicNumber": 3,
    "symbol": "Li",
    "name": "Lithium",
    "atomicMass": "6.94",
    "category": "Alkali Metal",
    "phase": "Solid",
    "summary": "Key component in rechargeable batteries.",
    "x": 1,
    "y": 2
  },
  {
    "atomicNumber": 4,
    "symbol": "Be",
    "name": "Beryllium",
    "atomicMass": "9.0122",
    "category": "Alkaline Earth Metal",
    "phase": "Solid",
    "summary": "Used in aerospace materials.",
    "x": 2,
    "y": 2
  },
  {
    "atomicNumber": 5,
    "symbol": "B",
    "name": "Boron",
    "atomicMass": "10.81",
    "category": "Metalloid",
    "phase": "Solid",
    "summary": "Essential for plant cell walls.",
    "x": 13,
    "y": 2
  },
  {
    "atomicNumber": 6,
    "symbol": "C",
    "name": "Carbon",
    "atomicMass": "12.011",
    "category": "Nonmetal",
    "phase": "Solid",
    "summary": "Basis of all organic life.",
    "x": 14,
    "y": 2
  },
  {
    "atomicNumber": 7,
    "symbol": "N",
    "name": "Nitrogen",
    "atomicMass": "14.007",
    "category": "Nonmetal",
    "phase": "Gas",
    "summary": "Makes up 78% of Earth's atmosphere.",
    "x": 15,
    "y": 2
  },
  {
    "atomicNumber": 8,
    "symbol": "O",
    "name": "Oxygen",
    "atomicMass": "15.999",
    "category": "Nonmetal",
    "phase": "Gas",
    "summary": "Essential for respiration.",
    "x": 16,
    "y": 2
  },
  {
    "atomicNumber": 9,
    "symbol": "F",
    "name": "Fluorine",
    "atomicMass": "18.998",
    "category": "Halogen",
    "phase": "Gas",
    "summary": "Most reactive element.",
    "x": 17,
    "y": 2
  },
  {
    "atomicNumber": 10,
    "symbol": "Ne",
    "name": "Neon",
    "atomicMass": "20.180",
    "category": "Noble Gas",
    "phase": "Gas",
    "summary": "Used in glowing signs.",
    "x": 18,
    "y": 2
  },
  {
    "atomicNumber": 11,
    "symbol": "Na",
    "name": "Sodium",
    "atomicMass": "22.990",
    "category": "Alkali Metal",
    "phase": "Solid",
    "summary": "Component of table salt.",
    "x": 1,
    "y": 3
  },
  {
    "atomicNumber": 12,
    "symbol": "Mg",
    "name": "Magnesium",
    "atomicMass": "24.305",
    "category": "Alkaline Earth Metal",
    "phase": "Solid",
    "summary": "Essential for biological enzymes.",
    "x": 2,
    "y": 3
  },
  {
    "atomicNumber": 13,
    "symbol": "Al",
    "name": "Aluminum",
    "atomicMass": "26.982",
    "category": "Post-transition Metal",
    "phase": "Solid",
    "summary": "Lightweight and corrosion-resistant.",
    "x": 13,
    "y": 3
  },
  {
    "atomicNumber": 14,
    "symbol": "Si",
    "name": "Silicon",
    "atomicMass": "28.085",
    "category": "Metalloid",
    "phase": "Solid",
    "summary": "Fundamental for computer chips.",
    "x": 14,
    "y": 3
  },
  {
    "atomicNumber": 15,
    "symbol": "P",
    "name": "Phosphorus",
    "atomicMass": "30.974",
    "category": "Nonmetal",
    "phase": "Solid",
    "summary": "Critical for DNA and energy storage.",
    "x": 15,
    "y": 3
  },
  {
    "atomicNumber": 16,
    "symbol": "S",
    "name": "Sulfur",
    "atomicMass": "32.06",
    "category": "Nonmetal",
    "phase": "Solid",
    "summary": "Used in fertilizers and gunpowder.",
    "x": 16,
    "y": 3
  },
  {
    "atomicNumber": 17,
    "symbol": "Cl",
    "name": "Chlorine",
    "atomicMass": "35.45",
    "category": "Halogen",
    "phase": "Gas",
    "summary": "Disinfectant for drinking water.",
    "x": 17,
    "y": 3
  },
  {
    "atomicNumber": 18,
    "symbol": "Ar",
    "name": "Argon",
    "atomicMass": "39.948",
    "category": "Noble Gas",
    "phase": "Gas",
    "summary": "Used in welding and lighting.",
    "x": 18,
    "y": 3
  },
  {
    "atomicNumber": 19,
    "symbol": "K",
    "name": "Potassium",
    "atomicMass": "39.098",
    "category": "Alkali Metal",
    "phase": "Solid",
    "summary": "Vital for nerve function.",
    "x": 1,
    "y": 4
  },
  {
    "atomicNumber": 20,
    "symbol": "Ca",
    "name": "Calcium",
    "atomicMass": "40.078",
    "category": "Alkaline Earth Metal",
    "phase": "Solid",
    "summary": "Builds bones and teeth.",
    "x": 2,
    "y": 4
  },
  {
    "atomicNumber": 21,
    "symbol": "Sc",
    "name": "Scandium",
    "atomicMass": "44.956",
    "category": "Transition Metal",
    "phase": "Solid",
    "summary": "Used in aerospace alloys.",
    "x": 3,
    "y": 4
  },
  {
    "atomicNumber": 22,
    "symbol": "Ti",
    "name": "Titanium",
    "atomicMass": "47.867",
    "category": "Transition Metal",
    "phase": "Solid",
    "summary": "Strong, lightweight, and corrosion-resistant.",
    "x": 4,
    "y": 4
  },
  {
    "atomicNumber": 23,
    "symbol": "V",
    "name": "Vanadium",
    "atomicMass": "50.942",
    "category": "Transition Metal",
    "phase": "Solid",
    "summary": "Strengthens steel.",
    "x": 5,
    "y": 4
  },
  {
    "atomicNumber": 24,
    "symbol": "Cr",
    "name": "Chromium",
    "atomicMass": "52.00",
    "category": "Transition Metal",
    "phase": "Solid",
    "summary": "Hardens steel and prevents rust.",
    "x": 6,
    "y": 4
  },
  {
    "atomicNumber": 25,
    "symbol": "Mn",
    "name": "Manganese",
    "atomicMass": "54.938",
    "category": "Transition Metal",
    "phase": "Solid",
    "summary": "Used in steel production.",
    "x": 7,
    "y": 4
  },
  {
    "atomicNumber": 26,
    "symbol": "Fe",
    "name": "Iron",
    "atomicMass": "55.845",
    "category": "Transition Metal",
    "phase": "Solid",
    "summary": "Key component of hemoglobin.",
    "x": 8,
    "y": 4
  },
  {
    "atomicNumber": 27,
    "symbol": "Co",
    "name": "Cobalt",
    "atomicMass": "58.933",
    "category": "Transition Metal",
    "phase": "Solid",
    "summary": "Used in magnets and batteries.",
    "x": 9,
    "y": 4
  },
  {
    "atomicNumber": 28,
    "symbol": "Ni",
    "name": "Nickel",
    "atomicMass": "58.693",
    "category": "Transition Metal",
    "phase": "Solid",
    "summary": "Used in stainless steel and coins.",
    "x": 10,
    "y": 4
  },
  {
    "atomicNumber": 29,
    "symbol": "Cu",
    "name": "Copper",
    "atomicMass": "63.546",
    "category": "Transition Metal",
    "phase": "Solid",
    "summary": "Excellent electrical conductor.",
    "x": 11,
    "y": 4
  },
  {
    "atomicNumber": 30,
    "symbol": "Zn",
    "name": "Zinc",
    "atomicMass": "65.38",
    "category": "Transition Metal",
    "phase": "Solid",
    "summary": "Anti-corrosion coating.",
    "x": 12,
    "y": 4
  },
  {
    "atomicNumber": 31,
    "symbol": "Ga",
    "name": "Gallium",
    "atomicMass": "69.723",
    "category": "Post-transition Metal",
    "phase": "Solid",
    "summary": "Melts near room temperature.",
    "x": 13,
    "y": 4
  },
  {
    "atomicNumber": 32,
    "symbol": "Ge",
    "name": "Germanium",
    "atomicMass": "72.630",
    "category": "Metalloid",
    "phase": "Solid",
    "summary": "Used in semiconductors.",
    "x": 14,
    "y": 4
  },
  {
    "atomicNumber": 33,
    "symbol": "As",
    "name": "Arsenic",
    "atomicMass": "74.922",
    "category": "Metalloid",
    "phase": "Solid",
    "summary": "Toxic, but used in semiconductors.",
    "x": 15,
    "y": 4
  },
  {
    "atomicNumber": 34,
    "symbol": "Se",
    "name": "Selenium",
    "atomicMass": "78.971",
    "category": "Nonmetal",
    "phase": "Solid",
    "summary": "Essential for enzymes.",
    "x": 16,
    "y": 4
  },
  {
    "atomicNumber": 35,
    "symbol": "Br",
    "name": "Bromine",
    "atomicMass": "79.904",
    "category": "Halogen",
    "phase": "Liquid",
    "summary": "Only liquid halogen.",
    "x": 17,
    "y": 4
  },
  {
    "atomicNumber": 36,
    "symbol": "Kr",
    "name": "Krypton",
    "atomicMass": "83.798",
    "category": "Noble Gas",
    "phase": "Gas",
    "summary": "Used in photography lighting.",
    "x": 18,
    "y": 4
  },
  {
    "atomicNumber": 37,
    "symbol": "Rb",
    "name": "Rubidium",
    "atomicMass": "85.468",
    "category": "Alkali Metal",
    "phase": "Solid",
    "summary": "Used in atomic clocks.",
    "x": 1,
    "y": 5
  },
  {
    "atomicNumber": 38,
    "symbol": "Sr",
    "name": "Strontium",
    "atomicMass": "87.62",
    "category": "Alkaline Earth Metal",
    "phase": "Solid",
    "summary": "Gives fireworks a red color.",
    "x": 2,
    "y": 5
  },
  {
    "atomicNumber": 39,
    "symbol": "Y",
    "name": "Yttrium",
    "atomicMass": "88.906",
    "category": "Transition Metal",
    "phase": "Solid",
    "summary": "Used in LEDs and superconductors.",
    "x": 3,
    "y": 5
  },
  {
    "atomicNumber": 40,
    "symbol": "Zr",
    "name": "Zirconium",
    "atomicMass": "91.224",
    "category": "Transition Metal",
    "phase": "Solid",
    "summary": "Corrosion-resistant; used in reactors.",
    "x": 4,
    "y": 5
  },
  {
    "atomicNumber": 41,
    "symbol": "Nb",
    "name": "Niobium",
    "atomicMass": "92.906",
    "category": "Transition Metal",
    "phase": "Solid",
    "summary": "Used in superconducting magnets.",
    "x": 5,
    "y": 5
  },
  {
    "atomicNumber": 42,
    "symbol": "Mo",
    "name": "Molybdenum",
    "atomicMass": "95.95",
    "category": "Transition Metal",
    "phase": "Solid",
    "summary": "Strengthens steel alloys.",
    "x": 6,
    "y": 5
  },
  {
    "atomicNumber": 43,
    "symbol": "Tc",
    "name": "Technetium",
    "atomicMass": "98",
    "category": "Transition Metal",
    "phase": "Solid",
    "summary": "First synthetic element.",
    "x": 7,
    "y": 5
  },
  {
    "atomicNumber": 44,
    "symbol": "Ru",
    "name": "Ruthenium",
    "atomicMass": "101.07",
    "category": "Transition Metal",
    "phase": "Solid",
    "summary": "Hardens platinum alloys.",
    "x": 8,
    "y": 5
  },
  {
    "atomicNumber": 45,
    "symbol": "Rh",
    "name": "Rhodium",
    "atomicMass": "102.91",
    "category": "Transition Metal",
    "phase": "Solid",
    "summary": "Used in catalytic converters.",
    "x": 9,
    "y": 5
  },
  {
    "atomicNumber": 46,
    "symbol": "Pd",
    "name": "Palladium",
    "atomicMass": "106.42",
    "category": "Transition Metal",
    "phase": "Solid",
    "summary": "Used in jewelry and catalysis.",
    "x": 10,
    "y": 5
  },
  {
    "atomicNumber": 47,
    "symbol": "Ag",
    "name": "Silver",
    "atomicMass": "107.87",
    "category": "Transition Metal",
    "phase": "Solid",
    "summary": "Best electrical conductor.",
    "x": 11,
    "y": 5
  },
  {
    "atomicNumber": 48,
    "symbol": "Cd",
    "name": "Cadmium",
    "atomicMass": "112.41",
    "category": "Transition Metal",
    "phase": "Solid",
    "summary": "Used in batteries; toxic.",
    "x": 12,
    "y": 5
  },
  {
    "atomicNumber": 49,
    "symbol": "In",
    "name": "Indium",
    "atomicMass": "114.82",
    "category": "Post-transition Metal",
    "phase": "Solid",
    "summary": "Used in touch screens.",
    "x": 13,
    "y": 5
  },
  {
    "atomicNumber": 50,
    "symbol": "Sn",
    "name": "Tin",
    "atomicMass": "118.71",
    "category": "Post-transition Metal",
    "phase": "Solid",
    "summary": "Used in solder and plating.",
    "x": 14,
    "y": 5
  },
  {
    "atomicNumber": 51,
    "symbol": "Sb",
    "name": "Antimony",
    "atomicMass": "121.76",
    "category": "Metalloid",
    "phase": "Solid",
    "summary": "Flame retardant.",
    "x": 15,
    "y": 5
  },
  {
    "atomicNumber": 52,
    "symbol": "Te",
    "name": "Tellurium",
    "atomicMass": "127.60",
    "category": "Metalloid",
    "phase": "Solid",
    "summary": "Used in solar panels.",
    "x": 16,
    "y": 5
  },
  {
    "atomicNumber": 53,
    "symbol": "I",
    "name": "Iodine",
    "atomicMass": "126.90",
    "category": "Halogen",
    "phase": "Solid",
    "summary": "Essential for thyroid function.",
    "x": 17,
    "y": 5
  },
  {
    "atomicNumber": 54,
    "symbol": "Xe",
    "name": "Xenon",
    "atomicMass": "131.29",
    "category": "Noble Gas",
    "phase": "Gas",
    "summary": "Used in lamps and anesthesia.",
    "x": 18,
    "y": 5
  },
  {
    "atomicNumber": 55,
    "symbol": "Cs",
    "name": "Cesium",
    "atomicMass": "132.91",
    "category": "Alkali Metal",
    "phase": "Solid",
    "summary": "Used in atomic clocks.",
    "x": 1,
    "y": 6
  },
  {
    "atomicNumber": 56,
    "symbol": "Ba",
    "name": "Barium",
    "atomicMass": "137.33",
    "category": "Alkaline Earth Metal",
    "phase": "Solid",
    "summary": "Used in medical imaging.",
    "x": 2,
    "y": 6
  },
  {
    "atomicNumber": 57,
    "symbol": "La",
    "name": "Lanthanum",
    "atomicMass": "138.91",
    "category": "Lanthanide",
    "phase": "Solid",
    "summary": "Used in camera lenses.",
    "x": 3,
    "y": 6
  },
  {
    "atomicNumber": 58,
    "symbol": "Ce",
    "name": "Cerium",
    "atomicMass": "140.12",
    "category": "Lanthanide",
    "phase": "Solid",
    "summary": "Catalytic converters.",
    "x": 4,
    "y": 9
  },
  {
    "atomicNumber": 59,
    "symbol": "Pr",
    "name": "Praseodymium",
    "atomicMass": "140.91",
    "category": "Lanthanide",
    "phase": "Solid",
    "summary": "Used in magnets and lasers.",
    "x": 5,
    "y": 9
  },
  {
    "atomicNumber": 60,
    "symbol": "Nd",
    "name": "Neodymium",
    "atomicMass": "144.24",
    "category": "Lanthanide",
    "phase": "Solid",
    "summary": "Powerful magnets.",
    "x": 6,
    "y": 9
  },
  {
    "atomicNumber": 61,
    "symbol": "Pm",
    "name": "Promethium",
    "atomicMass": "145",
    "category": "Lanthanide",
    "phase": "Solid",
    "summary": "Radioactive; luminous paint.",
    "x": 7,
    "y": 9
  },
  {
    "atomicNumber": 62,
    "symbol": "Sm",
    "name": "Samarium",
    "atomicMass": "150.36",
    "category": "Lanthanide",
    "phase": "Solid",
    "summary": "Used in cancer treatment.",
    "x": 8,
    "y": 9
  },
  {
    "atomicNumber": 63,
    "symbol": "Eu",
    "name": "Europium",
    "atomicMass": "151.96",
    "category": "Lanthanide",
    "phase": "Solid",
    "summary": "Used in phosphors for TVs.",
    "x": 9,
    "y": 9
  },
  {
    "atomicNumber": 64,
    "symbol": "Gd",
    "name": "Gadolinium",
    "atomicMass": "157.25",
    "category": "Lanthanide",
    "phase": "Solid",
    "summary": "MRI contrast agent.",
    "x": 10,
    "y": 9
  },
  {
    "atomicNumber": 65,
    "symbol": "Tb",
    "name": "Terbium",
    "atomicMass": "158.93",
    "category": "Lanthanide",
    "phase": "Solid",
    "summary": "Used in solid-state devices.",
    "x": 11,
    "y": 9
  },
  {
    "atomicNumber": 66,
    "symbol": "Dy",
    "name": "Dysprosium",
    "atomicMass": "162.50",
    "category": "Lanthanide",
    "phase": "Solid",
    "summary": "Used in neodymium magnets.",
    "x": 12,
    "y": 9
  },
  {
    "atomicNumber": 67,
    "symbol": "Ho",
    "name": "Holmium",
    "atomicMass": "164.93",
    "category": "Lanthanide",
    "phase": "Solid",
    "summary": "Highest magnetic strength.",
    "x": 13,
    "y": 9
  },
  {
    "atomicNumber": 68,
    "symbol": "Er",
    "name": "Erbium",
    "atomicMass": "167.26",
    "category": "Lanthanide",
    "phase": "Solid",
    "summary": "Used in fiber optics.",
    "x": 14,
    "y": 9
  },
  {
    "atomicNumber": 69,
    "symbol": "Tm",
    "name": "Thulium",
    "atomicMass": "168.93",
    "category": "Lanthanide",
    "phase": "Solid",
    "summary": "Used in portable X-ray devices.",
    "x": 15,
    "y": 9
  },
  {
    "atomicNumber": 70,
    "symbol": "Yb",
    "name": "Ytterbium",
    "atomicMass": "173.05",
    "category": "Lanthanide",
    "phase": "Solid",
    "summary": "Used in atomic clocks.",
    "x": 16,
    "y": 9
  },
  {
    "atomicNumber": 71,
    "symbol": "Lu",
    "name": "Lutetium",
    "atomicMass": "174.97",
    "category": "Lanthanide",
    "phase": "Solid",
    "summary": "Used in cancer therapy.",
    "x": 17,
    "y": 9
  },
  {
    "atomicNumber": 72,
    "symbol": "Hf",
    "name": "Hafnium",
    "atomicMass": "178.49",
    "category": "Transition Metal",
    "phase": "Solid",
    "summary": "Used in nuclear reactors.",
    "x": 4,
    "y": 6
  },
  {
    "atomicNumber": 73,
    "symbol": "Ta",
    "name": "Tantalum",
    "atomicMass": "180.95",
    "category": "Transition Metal",
    "phase": "Solid",
    "summary": "Used in surgical implants.",
    "x": 5,
    "y": 6
  },
  {
    "atomicNumber": 74,
    "symbol": "W",
    "name": "Tungsten",
    "atomicMass": "183.84",
    "category": "Transition Metal",
    "phase": "Solid",
    "summary": "Highest melting point.",
    "x": 6,
    "y": 6
  },
  {
    "atomicNumber": 75,
    "symbol": "Re",
    "name": "Rhenium",
    "atomicMass": "186.21",
    "category": "Transition Metal",
    "phase": "Solid",
    "summary": "Used in jet engines.",
    "x": 7,
    "y": 6
  },
  {
    "atomicNumber": 76,
    "symbol": "Os",
    "name": "Osmium",
    "atomicMass": "190.23",
    "category": "Transition Metal",
    "phase": "Solid",
    "summary": "Densest natural element.",
    "x": 8,
    "y": 6
  },
  {
    "atomicNumber": 77,
    "symbol": "Ir",
    "name": "Iridium",
    "atomicMass": "192.22",
    "category": "Transition Metal",
    "phase": "Solid",
    "summary": "Corrosion-resistant.",
    "x": 9,
    "y": 6
  },
  {
    "atomicNumber": 78,
    "symbol": "Pt",
    "name": "Platinum",
    "atomicMass": "195.08",
    "category": "Transition Metal",
    "phase": "Solid",
    "summary": "Used in catalytic converters.",
    "x": 10,
    "y": 6
  },
  {
    "atomicNumber": 79,
    "symbol": "Au",
    "name": "Gold",
    "atomicMass": "196.97",
    "category": "Transition Metal",
    "phase": "Solid",
    "summary": "Precious metal for jewelry.",
    "x": 11,
    "y": 6
  },
  {
    "atomicNumber": 80,
    "symbol": "Hg",
    "name": "Mercury",
    "atomicMass": "200.59",
    "category": "Transition Metal",
    "phase": "Liquid",
    "summary": "Liquid metal; toxic.",
    "x": 12,
    "y": 6
  },
  {
    "atomicNumber": 81,
    "symbol": "Tl",
    "name": "Thallium",
    "atomicMass": "204.38",
    "category": "Post-transition Metal",
    "phase": "Solid",
    "summary": "Highly toxic.",
    "x": 13,
    "y": 6
  },
  {
    "atomicNumber": 82,
    "symbol": "Pb",
    "name": "Lead",
    "atomicMass": "207.2",
    "category": "Post-transition Metal",
    "phase": "Solid",
    "summary": "Formerly used in plumbing.",
    "x": 14,
    "y": 6
  },
  {
    "atomicNumber": 83,
    "symbol": "Bi",
    "name": "Bismuth",
    "atomicMass": "208.98",
    "category": "Post-transition Metal",
    "phase": "Solid",
    "summary": "Peach-colored metal.",
    "x": 15,
    "y": 6
  },
  {
    "atomicNumber": 84,
    "symbol": "Po",
    "name": "Polonium",
    "atomicMass": "209",
    "category": "Post-transition Metal",
    "phase": "Solid",
    "summary": "Highly radioactive.",
    "x": 16,
    "y": 6
  },
  {
    "atomicNumber": 85,
    "symbol": "At",
    "name": "Astatine",
    "atomicMass": "210",
    "category": "Halogen",
    "phase": "Solid",
    "summary": "Rarest naturally occurring element.",
    "x": 17,
    "y": 6
  },
  {
    "atomicNumber": 86,
    "symbol": "Rn",
    "name": "Radon",
    "atomicMass": "222",
    "category": "Noble Gas",
    "phase": "Gas",
    "summary": "Radioactive; health hazard.",
    "x": 18,
    "y": 6
  },
  {
    "atomicNumber": 87,
    "symbol": "Fr",
    "name": "Francium",
    "atomicMass": "223",
    "category": "Alkali Metal",
    "phase": "Solid",
    "summary": "Highly radioactive.",
    "x": 1,
    "y": 7
  },
  {
    "atomicNumber": 88,
    "symbol": "Ra",
    "name": "Radium",
    "atomicMass": "226",
    "category": "Alkaline Earth Metal",
    "phase": "Solid",
    "summary": "Radioactive; luminous paint.",
    "x": 2,
    "y": 7
  },
  {
    "atomicNumber": 89,
    "symbol": "Ac",
    "name": "Actinium",
    "atomicMass": "227",
    "category": "Actinide",
    "phase": "Solid",
    "summary": "Radioactive; neutron source.",
    "x": 3,
    "y": 7
  },
  {
    "atomicNumber": 90,
    "symbol": "Th",
    "name": "Thorium",
    "atomicMass": "232.04",
    "category": "Actinide",
    "phase": "Solid",
    "summary": "Potential nuclear fuel.",
    "x": 4,
    "y": 10
  },
  {
    "atomicNumber": 91,
    "symbol": "Pa",
    "name": "Protactinium",
    "atomicMass": "231.04",
    "category": "Actinide",
    "phase": "Solid",
    "summary": "Rare and radioactive.",
    "x": 5,
    "y": 10
  },
  {
    "atomicNumber": 92,
    "symbol": "U",
    "name": "Uranium",
    "atomicMass": "238.03",
    "category": "Actinide",
    "phase": "Solid",
    "summary": "Nuclear fuel.",
    "x": 6,
    "y": 10
  },
  {
    "atomicNumber": 93,
    "symbol": "Np",
    "name": "Neptunium",
    "atomicMass": "237",
    "category": "Actinide",
    "phase": "Solid",
    "summary": "Synthetic; neutron detectors.",
    "x": 7,
    "y": 10
  },
  {
    "atomicNumber": 94,
    "symbol": "Pu",
    "name": "Plutonium",
    "atomicMass": "244",
    "category": "Actinide",
    "phase": "Solid",
    "summary": "Used in nuclear weapons.",
    "x": 8,
    "y": 10
  },
  {
    "atomicNumber": 95,
    "symbol": "Am",
    "name": "Americium",
    "atomicMass": "243",
    "category": "Actinide",
    "phase": "Solid",
    "summary": "Used in smoke detectors.",
    "x": 9,
    "y": 10
  },
  {
    "atomicNumber": 96,
    "symbol": "Cm",
    "name": "Curium",
    "atomicMass": "247",
    "category": "Actinide",
    "phase": "Solid",
    "summary": "High radioactivity; space probes.",
    "x": 10,
    "y": 10
  },
  {
    "atomicNumber": 97,
    "symbol": "Bk",
    "name": "Berkelium",
    "atomicMass": "247",
    "category": "Actinide",
    "phase": "Solid",
    "summary": "Synthetic; research only.",
    "x": 11,
    "y": 10
  },
  {
    "atomicNumber": 98,
    "symbol": "Cf",
    "name": "Californium",
    "atomicMass": "251",
    "category": "Actinide",
    "phase": "Solid",
    "summary": "Neutron source; cancer treatment.",
    "x": 12,
    "y": 10
  },
  {
    "atomicNumber": 99,
    "symbol": "Es",
    "name": "Einsteinium",
    "atomicMass": "252",
    "category": "Actinide",
    "phase": "Solid",
    "summary": "Synthetic; research purposes.",
    "x": 13,
    "y": 10
  },
  {
    "atomicNumber": 100,
    "symbol": "Fm",
    "name": "Fermium",
    "atomicMass": "257",
    "category": "Actinide",
    "phase": "Solid",
    "summary": "Synthetic; no practical uses.",
    "x": 14,
    "y": 10
  },
  {
    "atomicNumber": 101,
    "symbol": "Md",
    "name": "Mendelevium",
    "atomicMass": "258",
    "category": "Actinide",
    "phase": "Solid",
    "summary": "Synthetic; basic research.",
    "x": 15,
    "y": 10
  },
  {
    "atomicNumber": 102,
    "symbol": "No",
    "name": "Nobelium",
    "atomicMass": "259",
    "category": "Actinide",
    "phase": "Solid",
    "summary": "Synthetic; studied for properties.",
    "x": 16,
    "y": 10
  },
  {
    "atomicNumber": 103,
    "symbol": "Lr",
    "name": "Lawrencium",
    "atomicMass": "262",
    "category": "Actinide",
    "phase": "Solid",
    "summary": "Synthetic; research applications.",
    "x": 17,
    "y": 10
  },
  {
    "atomicNumber": 104,
    "symbol": "Rf",
    "name": "Rutherfordium",
    "atomicMass": "267",
    "category": "Transition Metal",
    "phase": "Solid",
    "summary": "Synthetic; no practical uses.",
    "x": 4,
    "y": 7
  },
  {
    "atomicNumber": 105,
    "symbol": "Db",
    "name": "Dubnium",
    "atomicMass": "268",
    "category": "Transition Metal",
    "phase": "Solid",
    "summary": "Synthetic; research purposes.",
    "x": 5,
    "y": 7
  },
  {
    "atomicNumber": 106,
    "symbol": "Sg",
    "name": "Seaborgium",
    "atomicMass": "269",
    "category": "Transition Metal",
    "phase": "Solid",
    "summary": "Synthetic; nuclear chemistry.",
    "x": 6,
    "y": 7
  },
  {
    "atomicNumber": 107,
    "symbol": "Bh",
    "name": "Bohrium",
    "atomicMass": "270",
    "category": "Transition Metal",
    "phase": "Solid",
    "summary": "Synthetic; highly unstable.",
    "x": 7,
    "y": 7
  },
  {
    "atomicNumber": 108,
    "symbol": "Hs",
    "name": "Hassium",
    "atomicMass": "269",
    "category": "Transition Metal",
    "phase": "Solid",
    "summary": "Synthetic; created in labs.",
    "x": 8,
    "y": 7
  },
  {
    "atomicNumber": 109,
    "symbol": "Mt",
    "name": "Meitnerium",
    "atomicMass": "278",
    "category": "Transition Metal",
    "phase": "Solid",
    "summary": "Synthetic; extremely radioactive.",
    "x": 9,
    "y": 7
  },
  {
    "atomicNumber": 110,
    "symbol": "Ds",
    "name": "Darmstadtium",
    "atomicMass": "281",
    "category": "Transition Metal",
    "phase": "Solid",
    "summary": "Synthetic; no known uses.",
    "x": 10,
    "y": 7
  },
  {
    "atomicNumber": 111,
    "symbol": "Rg",
    "name": "Roentgenium",
    "atomicMass": "282",
    "category": "Transition Metal",
    "phase": "Solid",
    "summary": "Synthetic; short half-life.",
    "x": 11,
    "y": 7
  },
  {
    "atomicNumber": 112,
    "symbol": "Cn",
    "name": "Copernicium",
    "atomicMass": "285",
    "category": "Transition Metal",
    "phase": "Gas",
    "summary": "Synthetic; highly unstable.",
    "x": 12,
    "y": 7
  },
  {
    "atomicNumber": 113,
    "symbol": "Nh",
    "name": "Nihonium",
    "atomicMass": "286",
    "category": "Post-transition Metal",
    "phase": "Solid",
    "summary": "Synthetic; first discovered in Japan.",
    "x": 13,
    "y": 7
  },
  {
    "atomicNumber": 114,
    "symbol": "Fl",
    "name": "Flerovium",
    "atomicMass": "289",
    "category": "Post-transition Metal",
    "phase": "Solid",
    "summary": "Synthetic; highly radioactive.",
    "x": 14,
    "y": 7
  },
  {
    "atomicNumber": 115,
    "symbol": "Mc",
    "name": "Moscovium",
    "atomicMass": "290",
    "category": "Post-transition Metal",
    "phase": "Solid",
    "summary": "Synthetic; created in Dubna, Russia.",
    "x": 15,
    "y": 7
  },
  {
    "atomicNumber": 116,
    "symbol": "Lv",
    "name": "Livermorium",
    "atomicMass": "293",
    "category": "Post-transition Metal",
    "phase": "Solid",
    "summary": "Synthetic; named after Livermore Lab.",
    "x": 16,
    "y": 7
  },
  {
    "atomicNumber": 117,
    "symbol": "Ts",
    "name": "Tennessine",
    "atomicMass": "294",
    "category": "Halogen",
    "phase": "Solid",
    "summary": "Synthetic; named after Tennessee.",
    "x": 17,
    "y": 7
  },
  {
    "atomicNumber": 118,
    "symbol": "Og",
    "name": "Oganesson",
    "atomicMass": "294",
    "category": "Noble Gas",
    "phase": "Solid",
    "summary": "Synthetic; heaviest known element.",
    "x": 18,
    "y": 7
  }
]
